 Q-Chem 5.1, Q-Chem, Inc., Pleasanton, CA (2018)
 Q-Chem 5.1.0 for Intel X86 EM64T Linux

User input:
--------------------------------------------------------------
$molecule
0 1
C          0.19029        1.81032        0.77251
C         -0.77197        0.97760        1.38021
C         -0.97791       -0.33113        0.89701
C         -0.22159       -0.80716       -0.19388
C          0.74067        0.02556       -0.80158
C          0.94661        1.33430       -0.31839
C          0.39637        3.11997        1.25604
C         -1.52883        1.45395        2.47187
C         -1.94085       -1.16444        1.50514
C         -0.42767       -2.11681       -0.67741
C          1.49753       -0.45079       -1.89324
C          1.90955        2.16760       -0.92652
C         -0.36131        3.58534        2.34265
C         -1.31692        2.75838        2.94615
C         -2.48468        0.61774        3.07061
C         -2.68919       -0.68193        2.59077
C         -2.13902       -2.46601        1.01728
C         -1.38793       -2.93874       -0.06607
C          0.33001       -2.58218       -1.76403
C          1.28562       -1.75522       -2.36752
C          2.45338        0.38542       -2.49199
C          2.65789        1.68510       -2.01214
C          2.10772        3.46917       -0.43865
C          1.35663        3.94190        0.64470
H         -0.21323        4.58868        2.72388
H         -1.89108        3.13672        3.78350
H         -3.07262        0.97082        3.90944
H         -3.43170       -1.31115        3.06692
H         -2.87504       -3.11628        1.47486
H         -1.55627       -3.94629       -0.42727
H          0.18193       -3.58552       -2.14526
H          1.85978       -2.13355       -3.20488
H          3.04132        0.03234       -3.33081
H          3.40040        2.31432       -2.48829
H          2.84374        4.11944       -0.89624
H          1.52497        4.94945        1.00590
$end

$rem
jobtype opt
basis 6-31G*
method hf
$end
--------------------------------------------------------------

   12    -915.9351944425      4.26e-09  Convergence criterion met
 Total energy in the final basis set =     -915.9351944425
   11    -915.9516480403      3.60e-09  Convergence criterion met
 Total energy in the final basis set =     -915.9516480403
   10    -915.9524936878      4.78e-09  Convergence criterion met
 Total energy in the final basis set =     -915.9524936878
    9    -915.9525511105      3.72e-09  Convergence criterion met
 Total energy in the final basis set =     -915.9525511105

             Standard Nuclear Orientation (Angstroms)
    I     Atom           X                Y                Z
 ----------------------------------------------------------------
    1      C       1.4153204977    -0.1779936846    -0.0000004870
    2      C       0.8618072718     1.1367062792    -0.0000003715
    3      C      -0.5535132803     1.3146998984    -0.0000002171
    4      C      -1.4153202638     0.1779934210    -0.0000003248
    5      C      -0.8618069349    -1.1367068142    -0.0000003270
    6      C       0.5535133358    -1.3147003925    -0.0000003886
    7      C       2.8020097263    -0.3523864933    -0.0000005624
    8      C       1.7061804444     2.2504179126    -0.0000003005
    9      C      -1.0958292142     2.6028043596    -0.0000000345
   10      C      -2.8020094890     0.3523863033    -0.0000002359
   11      C      -1.7061801350    -2.2504184258    -0.0000001150
   12      C       1.0958292956    -2.6028048569    -0.0000004425
   13      C       3.6410715168     0.7986152171    -0.0000003256
   14      C       3.1158295456     2.0461654629    -0.0000001883
   15      C       1.1289144232     3.5525680057    -0.0000000661
   16      C      -0.2141164808     3.7214703049    -0.0000000716
   17      C      -2.5121568693     2.7539524359     0.0000000492
   18      C      -3.3299461583     1.6753044811    -0.0000000051
   19      C      -3.6410714771    -0.7986157404    -0.0000000218
   20      C      -3.1158296191    -2.0461657845    -0.0000000673
   21      C      -1.1289143457    -3.5525681955     0.0000000745
   22      C       0.2141168605    -3.7214705553    -0.0000001822
   23      C       2.5121573339    -2.7539528765    -0.0000008013
   24      C       3.3299464874    -1.6753050584    -0.0000008231
   25      H       4.7080518622     0.6608333348    -0.0000002574
   26      H       3.7629555194     2.9056181374     0.0000001482
   27      H       1.7817274604     4.4077089755    -0.0000001207
   28      H      -0.6348614985     4.7116241036     0.0000000491
   29      H      -2.9263243405     3.7468755026     0.0000003066
   30      H      -4.3978169732     1.8060057885    -0.0000000100
   31      H      -4.7080518044    -0.6608336333     0.0000001519
   32      H      -3.7629554636    -2.9056185560     0.0000002941
   33      H      -1.7817272536    -4.4077092678     0.0000002745
   34      H       0.6348617327    -4.7116244207    -0.0000003135
   35      H       2.9263246143    -3.7468760327    -0.0000008322
   36      H       4.3978173337    -1.8060061194    -0.0000009498
 ----------------------------------------------------------------

    7    -915.9525515237      9.10e-09  Convergence criterion met
 Total energy in the final basis set =     -915.9525515237
 Final energy is   -915.952551523729
 **  OPTIMIZATION CONVERGED  **

                    Orbital Energies (a.u.)
 --------------------------------------------------------------

 Alpha MOs
 -- Occupied --
-11.244 -11.243 -11.243 -11.243 -11.243 -11.243 -11.242 -11.242
-11.242 -11.241 -11.241 -11.241 -11.236 -11.236 -11.236 -11.236
-11.236 -11.236 -11.234 -11.234 -11.234 -11.234 -11.234 -11.234
 -1.215  -1.170  -1.170  -1.110  -1.110  -1.086  -1.052  -1.029
 -1.011  -1.011  -0.971  -0.971  -0.861  -0.861  -0.860  -0.860
 -0.849  -0.771  -0.765  -0.737  -0.737  -0.724  -0.701  -0.651
 -0.651  -0.633  -0.633  -0.631  -0.631  -0.595  -0.586  -0.586
 -0.580  -0.576  -0.565  -0.565  -0.531  -0.525  -0.520  -0.520
 -0.509  -0.508  -0.508  -0.456  -0.456  -0.444  -0.444  -0.417
 -0.365  -0.342  -0.329  -0.329  -0.257  -0.257

          Ground-State Mulliken Net Atomic Charges

     Atom                 Charge (a.u.)
  ----------------------------------------
      1 C                    -0.026901
      2 C                    -0.026901
      3 C                    -0.026901
      4 C                    -0.026901
      5 C                    -0.026901
      6 C                    -0.026901
      7 C                     0.017540
      8 C                     0.017540
      9 C                     0.017540
     10 C                     0.017540
     11 C                     0.017540
     12 C                     0.017540
     13 C                    -0.204648
     14 C                    -0.204648
     15 C                    -0.204648
     16 C                    -0.204648
     17 C                    -0.204648
     18 C                    -0.204648
     19 C                    -0.204648
     20 C                    -0.204648
     21 C                    -0.204648
     22 C                    -0.204648
     23 C                    -0.204648
     24 C                    -0.204648
     25 H                     0.209328
     26 H                     0.209328
     27 H                     0.209328
     28 H                     0.209328
     29 H                     0.209328
     30 H                     0.209328
     31 H                     0.209328
     32 H                     0.209328
     33 H                     0.209328
     34 H                     0.209328
     35 H                     0.209328
     36 H                     0.209328
  ----------------------------------------
  Sum of atomic charges =    -0.000000

                    Cartesian Multipole Moments
 -----------------------------------------------------------------
    Charge (ESU x 10^10)
                 0.0000
    Dipole Moment (Debye)
         X      -0.0000      Y       0.0000      Z       0.0000
       Tot       0.0000
    Quadrupole Moments (Debye-Ang)
        XX    -115.8778     XY      -0.0000     YY    -115.8778
        XZ      -0.0000     YZ       0.0000     ZZ    -145.8985

 Total job time:  499.72s(wall), 8292.57s(cpu)
        *  Thank you very much for using Q-Chem.  Have a nice day.  *
